LAMMPS (31 Mar 2017)
Total wall time: 0:00:05
